PartNumber: Mesh
layerId: layer0
layerMax: 4
layers:
  layer0:
    poleR: 120
    band: 12
    convenience: 17
    safetyR: 40
    lineCount: 500
    LayerName: mesh
    LayerNumber: 1
    tapeShow: true
    csvColumn: 1
    mandrelRaw:
      x:
        - -508.493459
        - -505.78054
        - -500.660079
        - -494.661917
        - -491.874648
        - -481.206433
        - -470.538217
        - -273.755752
        - -86.482448
        - -75.814233
        - -65.146017
        - -54.4778
        - -52.849587
        - 0
        - 52.849587
        - 54.4778
        - 65.146017
        - 75.814233
        - 86.482448
        - 273.755752
        - 470.538217
        - 481.206433
        - 491.874648
        - 494.661917
        - 500.660079
        - 505.78054
        - 508.493459
        - 515.83826
      r:
        - 119.645094
        - 122.653614
        - 127.303304
        - 132.75
        - 133.41497
        - 135.960131
        - 138.505291
        - 185.4525
        - 230.131069
        - 232.676229
        - 235.22139
        - 237.76655
        - 238.156
        - 238.155
        - 238.156
        - 237.76655
        - 235.22139
        - 232.676229
        - 230.131069
        - 185.4525
        - 138.505291
        - 135.960131
        - 133.41497
        - 132.75
        - 127.303304
        - 122.653614
        - 119.645094
        - 111.5
    page: vessel
    windingMode: round
    coilInitial:
      x:
        - -504.0377413805093
        - -504.034524501829
        - -504.02729742844645
        - -504.01605969500986
        - -504.0008105393194
        - -503.981548803827
        - -503.9582732692326
        - -503.93098248461854
        - -503.8996750695533
        - -503.86434965232326
        - -503.8250048796787
        - -503.78163975769303
        - -503.73425302551453
        - -503.68284475942806
        - -503.6274149474661
        - -503.56796475154266
        - -503.50449622574683
        - -503.4370122857408
        - -503.36551781402966
        - -503.290018712788
        - -503.21052258886243
        - -503.12703948502036
        - -503.03958189479994
        - -502.94816384445164
        - -502.85286816978817
        - -502.753762081119
        - -502.6508176261127
        - -502.54403516220685
        - -502.4334165888938
        - -502.3189657882844
        - -502.20068855103654
        - -502.07859346997174
        - -501.95269085361195
        - -501.8229449073979
        - -501.6897675606704
        - -501.55305706494795
        - -501.4128970852845
        - -501.2693807328323
        - -501.1226147587239
        - -500.97271449927143
        - -500.81981760149984
        - -500.6641573402117
        - -500.50601551961006
        - -500.34569394701697
        - -500.1835182366861
        - -500.0198360439667
        - -499.8550659211132
        - -499.6887225009883
        - -499.52063737321674
        - -499.3505472979391
        - -499.1781283743774
        - -499.0031257427722
        - -498.82474354156835
        - -498.64273489341275
        - -498.4567524898518
        - -498.2663773098867
        - -498.0711056109196
        - -497.87036487367936
        - -497.66352955870354
        - -497.4498584662999
        - -497.2284633950579
        - -496.9984880126221
        - -496.7589177745322
        - -496.50894668265374
        - -496.2476167211253
        - -495.97426816944767
        - -495.6874342143508
        - -495.38604093089583
        - -495.06961325562366
        - -494.7396079509555
        - -494.40005489015755
        - -494.0542258132543
        - -493.7049940050994
        - -493.3545331642891
        - -493.00456988956154
        - -492.65617844571165
        - -492.3093764159886
        - -491.9614749785977
        - -491.61198327340276
        - -491.2606029688753
        - -490.90729998451167
        - -490.55253635621153
        - -490.19631225562836
        - -489.8386185761797
        - -489.47946083868754
        - -489.11885473583595
        - -488.7567957803956
        - -488.3932962746736
        - -488.0283537128344
        - -487.6619677977782
        - -487.2941410057891
        - -486.9248844043656
        - -486.5541895245871
        - -486.18206777462757
        - -485.8085188157276
        - -485.4335467558093
        - -485.0571560117017
        - -484.6793412386258
        - -484.3001138335132
        - -483.919476657985
        - -483.53742069301666
        - -483.1539671658499
        - -482.7691063030659
        - -482.38284420718844
        - -481.99518663199257
        - -481.6061194231611
        - -481.2156790838009
        - -480.823840635883
        - -480.43061526041663
        - -480.03600290012463
        - -479.640015201604
        - -479.2426491967042
        - -478.84390187735227
        - -478.44378492759074
        - -478.04229828951463
        - -477.63944484285673
        - -477.235230431349
        - -476.8296520184854
        - -476.4227124727959
        - -476.0144176424782
        - -475.6047733985174
        - -475.19378264549863
        - -474.7814452947971
        - -474.3677582376884
        - -473.9527363547943
        - -473.5363675183378
        - -473.118672669532
        - -472.69964266628074
        - -472.2792864418709
        - -471.85759781106174
        - -471.4345887523385
        - -471.01025609269567
        - -470.58461490861066
        - -470.15764724962014
        - -469.72937286273554
        - -469.29979612439075
        - -468.8689010604034
        - -468.43671511496325
        - -468.0032196814074
        - -467.5684299587545
        - -467.13234577094994
        - -466.6949700172703
        - -466.256308701359
        - -465.8163523009194
        - -465.37512547023675
        - -464.93260851338005
        - -464.48881923752884
        - -464.04375497012006
        - -463.59741627591615
        - -463.14981550568075
        - -462.70094610164784
        - -462.25081305913
        - -461.79942400748945
        - -461.3467739457659
        - -460.89287454263774
        - -460.43771815895917
        - -459.98131663703066
        - -459.52367211443277
        - -459.06478078662576
        - -458.6046529786221
        - -458.14329032112556
        - -457.6806883122209
        - -457.2168586593833
        - -456.7518044158855
        - -456.28551863973075
        - -455.81801393168087
        - -455.34929318754075
        - -454.879349561653
        - -454.40819565129806
        - -453.9358278312096
        - -453.4622587464794
        - -452.9874847633431
        - -452.51150219769846
        - -452.03432700718184
        - -451.5559489407952
        - -451.07638070579674
        - -450.59562188051825
        - -450.1136753229382
        - -449.63054179968947
        - -449.14622711479296
        - -448.66073780371613
        - -448.1740688531348
        - -447.6862270592306
        - -447.1972133699425
        - -446.7070350832343
        - -446.2156867280951
        - -445.72317882022537
        - -445.2295116338399
        - -444.7346913727094
        - -444.2387107525916
        - -443.74158271327815
        - -443.243306707105
        - -442.7438889517166
        - -442.24332547955464
        - -441.74161850612904
        - -441.23877939946226
        - -440.7348081006735
        - -440.2297011595226
        - -439.72346821879864
        - -439.216109799343
        - -438.70762869846493
        - -438.1980277110195
        - -437.68730962768836
        - -437.1754737740132
        - -436.66253332256827
        - -436.14848066705747
        - -435.6333185668807
        - -435.11706024054445
        - -434.5996980159018
        - -434.0812416419139
        - -433.5616851366574
        - -433.0410365016447
        - -432.519299751139
        - -431.99647739413723
        - -431.4725706726503
        - -430.94758283632217
        - -430.42151928586225
        - -429.8943747879176
        - -429.36616360718835
        - -428.8368751494189
        - -428.30652281141136
        - -427.7751021861242
        - -427.2426267193969
        - -426.7090884031646
        - -426.17449711872007
        - -425.6388474737266
        - -425.1021413050785
        - -424.5643929707189
        - -424.0255988855904
        - -423.4857689949669
        - -422.9448896443092
        - -422.40297267344823
        - -421.8600224787331
        - -421.316039957024
        - -420.7710277799556
        - -420.2249922803279
        - -419.6779244528322
        - -419.1298436532216
        - -418.5807394988583
        - -418.03061529593316
        - -417.47948106601757
        - -416.92733576716387
        - -416.37418203714736
        - -415.8200206170927
        - -415.264859814095
        - -414.7087003044347
        - -414.15153541147777
        - -413.5933789405875
        - -413.0342297731048
        - -412.4740942718939
        - -411.912963770628
        - -411.35085213525906
        - -410.7877619789494
        - -410.22368743623156
        - -409.658630006727
        - -409.092608483703
        - -408.5256112007961
        - -407.9576488692289
        - -407.38871099489324
        - -406.8188131978961
        - -406.247957509577
        - -405.67613644775804
        - -405.10336352587683
        - -404.52962995514844
        - -403.95494935380134
        - -403.37931940275405
        - -402.80274296503757
        - -402.22522256273237
        - -401.6467607130588
        - -401.0673638179858
        - -400.48702661248547
        - -399.90575157882375
        - -399.32354510419316
        - -398.7404268961657
        - -398.1563634921115
        - -397.57137372788566
        - -396.9854781987238
        - -396.398647907266
        - -395.81091289584276
        - -395.2222598574366
        - -394.63269321191007
        - -394.04222135866934
        - -393.45084477731257
        - -392.858555957363
        - -392.2653732637627
        - -391.6712864588269
        - -391.07630009380557
        - -390.48042245116073
        - -389.8836546823465
        - -389.2859968192861
        - -388.68745033410056
        - -388.0880185733246
        - -387.4877042861749
        - -386.8865058099576
        - -386.2844336325614
        - -385.68148608802744
        - -385.07766147734475
        - -384.4729747494456
        - -383.8674149868142
        - -383.2609896829931
        - -382.6537008407101
        - -382.0455508100897
        - -381.4365419360452
        - -380.8266806824096
        - -380.21595288000697
        - -379.6043866585598
        - -378.9919647209506
        - -378.3786966204609
        - -377.76458363613165
        - -377.14962391003576
        - -376.533832243754
        - -375.917198436087
        - -375.29972894605396
        - -374.68142186576597
        - -374.0622962637915
        - -373.44232501691454
        - -372.82154019647203
        - -372.1999303472311
        - -371.5774903841331
        - -370.9542390986939
        - -370.3301618051381
        - -369.7052734597642
        - -369.07957350876563
        - -368.45306412366256
        - -367.8257390637292
        - -367.1976119066997
        - -366.56867631860786
        - -365.9389473748779
        - -365.30841090535796
        - -364.67708825415014
        - -364.0449581448946
        - -363.4120392130178
        - -362.77832789430977
        - -362.14383069269115
        - -361.5085454610354
        - -360.8724712578783
        - -360.2356304464977
        - -359.59799230593256
        - -358.9595775969848
        - -358.3203918623991
        - -357.68043248139156
        - -357.0397059894383
        - -356.3982101373432
        - -355.7559382298199
        - -355.1129100210844
        - -354.4691143936337
        - -353.82454900361336
        - -353.17924255961634
        - -352.5331616641335
        - -351.8863448616886
        - -351.23876041688993
        - -350.5904264328183
        - -349.9413485764832
        - -349.29152894498134
        - -348.64096513715594
        - -347.9896457167341
        - -347.3376042418231
        - -346.6848066968073
        - -346.03128673494894
        - -345.3770283354516
        - -344.72203805047843
        - -344.06631791256024
        - -343.4098699486274
        - -342.75269618082996
        - -342.09479862572505
        - -341.4361838699658
        - -340.7768356116098
        - -340.11678332403767
        - -339.45601068112524
        - -338.79451964977545
        - -338.1323260308285
        - -337.4694226086802
        - -336.8058021035645
        - -336.14147621977787
        - -335.47645467582026
        - -334.8107270567637
        - -334.14429943955554
        - -333.477173775284
        - -332.809361347142
        - -332.1408267088979
        - -331.4716278987248
        - -330.8017294222354
        - -330.1311472654846
        - -329.459865438709
        - -328.7879113569951
        - -328.11526137926916
        - -327.4419566280237
        - -326.76794991548246
        - -326.09327266285095
        - -325.417924977301
        - -324.74189965130313
        - -324.06519347050244
        - -323.38783215588626
        - -322.70979370745533
        - -322.03109911915556
        - -321.3517358855231
        - -320.67171064455425
        - -319.99102524134605
        - -319.3096815169981
        - -318.62768130681843
        - -317.9450264408191
        - -317.261718745602
        - -316.57776489665764
        - -315.89314727627357
        - -315.2078968564407
        - -314.5219959934371
        - -313.83545135163183
        - -313.14826472620666
        - -312.46043790733745
        - -311.7719726802106
        - -311.08286578364505
        - -310.39312754839887
        - -309.70275840515626
        - -309.0117632182239
        - -308.32012884077363
        - -307.6278691289224
        - -306.9349846031365
        - -306.24147577139746
        - -305.54734935586646
        - -304.85260141318935
        - -304.15722582030935
        - -303.4612371302328
        - -302.7646277758473
        - -302.0674195309024
        - -301.3695840077195
        - -300.671142986817
        - -299.97209314907445
        - -299.2724361912279
        - -298.5721738047941
        - -297.8713026095338
        - -297.16983441414465
        - -296.46777092104685
        - -295.76510873389543
        - -295.06184952031333
        - -294.35797911299136
        - -293.65352108995813
        - -292.94848071877004
        - -292.2428382407819
        - -291.5366149963347
        - -290.8298083208392
        - -290.12241100569724
        - -289.41442981945954
        - -288.7058663871688
        - -287.9967171504841
        - -287.2869940743785
        - -286.57669879375203
        - -285.8658277362217
        - -285.15437208228934
        - -284.4423490366837
        - -283.72974976251135
        - -283.0165915273767
        - -282.30285996301654
        - -281.58856744103423
        - -280.87370046610863
        - -280.15827513026613
        - -279.4422935260857
        - -278.725746670367
        - -278.00863080333465
        - -277.29097392319454
        - -276.57275774688344
        - -275.85398512699925
        - -275.1346669045711
        - -274.414787316118
        - -273.6943638595438
        - -272.97339558410835
        - -272.25188081897403
        - -271.52981355856156
        - -270.80721390266433
        - -270.08406188594995
        - -269.3603751272253
        - -268.6361479510433
        - -267.911381842957
        - -267.18608910762345
        - -266.460256814884
        - -265.73389003756654
        - -265.0069902467458
        - -264.2795741596653
        - -263.5516101829487
        - -262.82312922212145
        - -262.09412839324574
        - -261.364598204363
        - -260.6345400954525
        - -259.9039719637056
        - -259.17286778721234
        - -258.44126750184716
        - -257.70915056156525
        - -256.9765073444156
        - -256.24333720746864
        - -255.50966973390496
        - -254.77548173001958
        - -254.04080472686812
        - -253.30561203981173
        - -252.56989585832025
        - -251.8336862266571
        - -251.09697100830067
        - -250.3597539872307
        - -249.62203962055236
        - -248.88380644515303
        - -248.14510115298543
        - -247.40588754180175
        - -246.66617821569707
        - -245.9259731266032
        - -245.18528353278236
        - -244.4440952433157
        - -243.7024109961198
        - -242.96024348594653
        - -242.21758691715905
        - -241.4744584440652
        - -240.730820787607
        - -239.98671095344451
        - -239.24211314366454
        - -238.49704872569322
        - -237.75149192701343
        - -237.00546233788668
        - -236.258954455639
        - -235.5119766718778
        - -234.76451876498197
        - -234.01658779374674
        - -233.26818176801135
        - -232.51931184386012
        - -231.7699636353172
        - -231.02015332671044
        - -230.26987639768197
        - -229.5191341252559
        - -228.76792126069347
        - -228.01625952923195
        - -227.26412795957134
        - -226.5115311384722
        - -225.75848703683062
        - -225.00497930506788
        - -224.2510150611588
        - -223.49660145296042
        - -222.7417161084743
        - -221.98640161940347
        - -221.23062376091815
        - -220.47437480979534
        - -219.71770642929062
        - -218.96058127804042
        - -218.20300947990256
        - -217.4450041903571
        - -216.68654873742219
        - -215.92762381665176
        - -215.1682920788923
        - -214.4085004324525
        - -213.64827898577568
        - -212.8876085071593
        - -212.12650177753733
        - -211.3649679779166
        - -210.60300378004382
        - -209.8405923011589
        - -209.07774850540096
        - -208.31448571786615
        - -207.55078326769853
        - -206.78666358802496
        - -206.02209802007172
        - -205.2571261027345
        - -204.49170933749247
        - -203.72589042542228
        - -202.95963014290703
        - -202.1929549921325
        - -201.42585735984812
        - -200.65834454339972
        - -199.8904000488552
        - -199.12205408728346
        - -198.35327957932122
        - -197.58408997860795
        - -196.81450500361103
        - -196.04449480773002
        - -195.27407873700946
        - -194.50323412249713
        - -193.73199206579204
        - -192.96034784402303
        - -192.1882963328195
        - -191.41582141279196
        - -190.64295758470217
        - -189.86968412576664
        - -189.09601411422227
        - -188.32193147684598
        - -187.5474511982548
        - -186.77256647667025
        - -185.99729574635302
        - -185.2216148137138
        - -184.4455500428071
        - -183.66907902207726
        - -182.89222895965344
        - -182.11496997410285
        - -181.33732827003888
        - -180.55929058024407
        - -179.7808627246912
        - -179.00203825867953
        - -178.2228342786974
        - -177.44323145248086
        - -176.6632640387578
        - -175.88290014745508
        - -175.1021603164627
        - -174.32103033958145
        - -173.5395119970927
        - -172.75762137272721
        - -171.97534656322648
        - -171.19269545341876
        - -170.4096748144094
        - -169.6262542692071
        - -168.84247741382313
        - -168.05832051393924
        - -167.27379629580724
        - -166.4888927039852
        - -165.703613508229
        - -164.9179657822453
        - -164.13194061332223
        - -163.34555642003556
        - -162.55880991985288
        - -161.77169297189954
        - -160.98421707864884
        - -160.19635285533707
        - -159.40813778200044
        - -158.61955962460934
        - -157.83061934306727
        - -157.04131789530987
        - -156.2516495844323
        - -155.46163531674398
        - -154.67125671572273
        - -153.88051481569045
        - -153.0894264730543
        - -152.2979846685701
        - -151.50616822379408
        - -150.71400781775935
        - -149.92150221425743
        - -149.12864785259774
        - -148.33544268122034
        - -147.5418741292142
        - -146.74796602420895
        - -145.95370447599328
        - -145.15910102325688
        - -144.36414621913588
        - -143.56885310095345
        - -142.77320664057743
        - -141.9772211194438
        - -141.18089297782433
        - -140.38422311328168
        - -139.58720917014148
        - -138.7898617982409
        - -137.99217736107744
        - -137.19414185491712
        - -136.39577919351916
        - -135.59707769635304
        - -134.7980505545467
        - -133.99866288428933
        - -133.19896230897598
        - -132.39893222682645
        - -131.59855497349304
        - -130.79786250615973
        - -129.9968199432701
        - -129.19545812674136
        - -128.39376720722885
        - -127.59175385931297
        - -126.789408668374
        - -125.98673822639955
        - -125.18374260649239
        - -124.38042724815801
        - -123.5767862228023
        - -122.77280608622885
        - -121.96851112969705
        - -121.16391629989238
        - -120.35896627182171
        - -119.55374293431419
        - -118.74816904624532
        - -117.94228748883808
        - -117.13607901833979
        - -116.32956395983058
        - -115.52274176419166
        - -114.71559377364304
        - -113.90812734539384
        - -113.1003476562089
        - -112.2922696413853
        - -111.48387240329424
        - -110.67517334665717
        - -109.86614970821438
        - -109.05681727927612
        - -108.2471912253194
        - -107.43724361374416
        - -106.62700708134099
        - -105.81645878295524
        - -105.00560154254981
        - -104.19443302831917
        - -103.3829602938265
        - -102.57120867894514
        - -101.7591294995105
        - -100.94676401206891
        - -100.13408585180224
        - -99.32112386900235
        - -98.5078486826124
        - -97.69428838700873
        - -96.88042733978375
        - -96.06626539975173
        - -95.25181657419023
        - -94.43705140665202
        - -93.62201988984708
        - -92.80669015995062
        - -91.99106785618369
        - -91.1751185347938
        - -90.35891896732858
        - -89.54240857945064
        - -88.72562335266491
        - -87.90854184227163
        - -87.09116475459274
        - -86.27351879719123
        - -85.45557873251573
        - -84.63734541948679
        - -83.81883399274545
        - -83.00004941107409
        - -82.18095098004801
        - -81.36157729151688
        - -80.5419285246357
        - -79.72199810682366
        - -78.90178299521523
        - -78.08129367620933
        - -77.26052406108653
        - -76.43947414019539
        - -75.61813855956012
        - -74.79654066559647
        - -73.97467364561129
        - -73.15249276976505
        - -72.33006685718618
        - -71.5073511491479
        - -70.6843690859867
        - -69.8611213747468
        - -69.03759352344252
        - -68.21377601577757
        - -67.3897150699533
        - -66.56538141177293
        - -65.74077041456616
        - -64.91587249456649
        - -64.09068311419111
        - -63.26521387953818
        - -62.43950287372428
        - -61.61350509402155
        - -60.787247473810226
        - -59.96089555424675
        - -59.13390386782493
        - -58.30661506870831
        - -57.48160634621553
        - -56.65179084582377
        - -55.818876138772566
        - -55.01427152897003
        - -54.201624348727876
        - -53.29622125421554
        - -52.36217623147735
        - -51.470510437583584
        - -50.62951440258587
        - -49.78072225695536
        - -48.92568041408924
        - -48.0744155752426
        - -47.22293005146747
        - -46.37082360864116
        - -45.51900893414228
        - -44.66718695709511
        - -43.8153193450251
        - -42.963474550466515
        - -42.11162975590793
        - -41.25977355238285
        - -40.40791734901126
        - -39.55608396345639
        - -38.70423916904895
        - -37.85239437467936
        - -37.000549580344625
        - -36.14869337808807
        - -35.29684858410616
        - -34.44499238283515
        - -33.593158996316674
        - -32.74132560913267
        - -31.889446596266566
        - -31.037613209198526
        - -30.1858026320877
        - -29.333912217856096
        - -28.482090234084865
        - -27.63023240742001
        - -26.778392501638393
        - -25.926567256363285
        - -25.074688255115234
        - -24.2228434626943
        - -23.370998670298945
        - -22.51915969606273
        - -21.667313807991434
        - -20.815464293196726
        - -19.963619500833204
        - -19.111786107051273
        - -18.259952712168342
        - -17.408084460499367
        - -16.55624033120887
        - -15.70441073401355
        - -14.852562142154227
        - -14.00072874454321
        - -13.148872555956075
        - -12.297050551833024
        - -11.445200060677848
        - -10.593349569925806
        - -9.741516169425779
        - -8.889637196609613
        - -8.037815188511388
        - -7.185976090702582
        - -6.334136992540209
        - -5.482292198245716
        - -4.630447403918481
        - -3.7786140007714835
        - -2.9267464241039534
        - -2.074924411654308
        - -1.2230796170957206
        - -0.37122343172768524
        - 0.4806099720214547
        - 1.3324547665800424
        - 2.18429956113863
        - 3.0361441998728083
        - 3.8879891502558053
        - 4.739833944814393
        - 5.591655956022976
        - 6.443512141988265
        - 7.2953417010796215
        - 8.147186488635555
        - 8.999012345905783
        - 9.850879925553784
        - 10.70272471930383
        - 11.554569513010108
        - 12.406437095841682
        - 13.258259100305793
        - 14.110103893902249
        - 14.961925895421189
        - 15.813782084477737
        - 16.66564967158189
        - 17.517471670447378
        - 18.36931646339525
        - 19.221168095522728
        - 20.07300194552937
        - 20.924837137919496
        - 21.776707035372795
        - 22.628531877339526
        - 23.48037381950445
        - 24.332252817722008
        - 25.18407480680054
        - 26.035931002782547
        - 26.88775298928539
        - 27.739616028258354
        - 28.59147678795017
        - 29.443287367101163
        - 30.29515497070389
        - 31.14698835851806
        - 31.99884455811565
        - 32.850689351887866
        - 33.70255639589283
        - 34.554390346974
        - 35.40623514121836
        - 36.258068527502644
        - 37.10993613804072
        - 37.96178093259931
        - 38.8136257271579
        - 39.665459112924
        - 40.517315316275074
        - 41.369159975762784
        - 42.22100490539225
        - 43.07286110889987
        - 43.92469436068501
        - 44.77658492422012
        - 45.628372675397884
        - 46.48009750776413
        - 47.332404524063634
        - 48.1840438909374
        - 49.03384528473924
        - 49.89061576430669
        - 50.74186746718402
        - 51.56588992454289
        - 52.47176538046102
        - 53.466484637400924
        - 54.32052762350435
        - 55.13940538381115
        - 55.95453257435014
        - 56.78222453088205
        - 57.61080448843239
        - 58.4365869791672
        - 59.262881769320245
        - 60.08914950056686
        - 60.914966699179615
        - 61.740592603110656
        - 62.56596712588038
        - 63.391071836523395
        - 64.21592242164417
        - 65.04049104788402
        - 65.86474883800128
        - 66.68871273178257
        - 67.51243023334217
        - 68.3358465828897
        - 69.1590334676992
        - 69.98189885187702
        - 70.80449708534906
        - 71.62685066315186
        - 72.44890244798859
        - 73.27069270634018
        - 74.0921969374287
        - 74.91337935863015
        - 75.73436981194828
        - 76.55503911812417
        - 77.3754031468689
        - 78.19552321103885
        - 79.01534891441298
        - 79.83488145976838
        - 80.65415287855257
        - 81.47312970487877
        - 82.29181851759887
        - 83.11022944366431
        - 83.92836179221041
        - 84.74619667904318
        - 85.56374426498195
        - 86.38101468295275
        - 87.19796374756748
        - 88.01462333604906
        - 88.8310360906292
        - 89.64714700137398
        - 90.46294451293221
        - 91.27846039784828
        - 92.09368306735149
        - 92.90860096352509
        - 93.72324576971681
        - 94.53759509611797
        - 95.35161580473738
        - 96.16536413704097
        - 96.97881949697518
        - 97.79197934326686
        - 98.60481836883531
        - 99.41737013184121
        - 100.22962783767588
        - 101.04154601472027
        - 101.85320946702387
        - 102.66455134823349
        - 103.47560004596795
        - 104.2863225891279
        - 105.09676377938553
        - 105.90687191136902
        - 106.71667567980722
        - 107.52619301294231
        - 108.33540525537074
        - 109.14427123280399
        - 109.95284718654835
        - 110.76112514467246
        - 111.56908058340508
        - 112.37672337587406
        - 113.18408144694348
        - 113.9910653891522
        - 114.79776777752551
        - 115.60414123946663
        - 116.41020331343162
        - 117.2159584827595
        - 118.02140059331583
        - 118.82649167948631
        - 119.63130196818764
        - 120.43576603938192
        - 121.23993591353218
        - 122.04374307537825
        - 122.84725756161964
        - 123.65043726848222
        - 124.45330250192382
        - 125.25583031839534
        - 126.05803332228817
        - 126.8598761397406
        - 127.66145379618303
        - 128.46265998189546
        - 129.26355707924876
        - 130.06410210096288
        - 130.86432576699127
        - 131.6642219355977
        - 132.46377397434054
        - 133.26298953380893
        - 134.06189468965198
        - 134.86042489657854
        - 135.65863895320075
        - 136.45653593928085
        - 137.25406260613562
        - 138.05125995575366