poleR: 185
band: 10
conv: 11
netStructure: true
safetyR: 50
lineCount: 1500
PartNumber: Mesh
LayerNumber: 1
csvColumn: 1
mandrelRaw:
  x:
    - 21.977390615121294
    - 21.985565206777437
    - 22.239834855230356
    - 22.434133883643426
    - 22.581803132461573
    - 22.696183442129495
    - 22.7906156530903
    - 22.878440605790274
    - 22.972999140672755
    - 23.08758687348177
    - 23.23230251024711
    - 23.411989567323417
    - 23.631002526867405
    - 23.893695871035334
    - 24.204424081983234
    - 24.567511640468183
    - 24.983554717792686
    - 25.44585515936251
    - 25.94686923885547
    - 26.47905322995007
    - 27.034863406323666
    - 27.606756041655444
    - 28.187187409621856
    - 28.768613783902538
    - 29.34349143817508
    - 29.904276646117523
    - 30.44342568140746
    - 30.953433210913772
    - 31.43053192434877
    - 31.877771150845092
    - 32.29892491036503
    - 32.69776722287315
    - 33.07807210833198
    - 33.443613586705624
    - 33.79816567795774
    - 34.145502402051534
    - 34.489397778950206
    - 34.833625828618096
    - 35.18196057101818
    - 35.538176026114115
    - 35.906046213869104
    - 36.28934515424726
    - 36.69184686721201
    - 37.1173253727261
    - 37.56955469075433
    - 38.052308841258764
    - 38.56936184420442
    - 39.1244877195536
    - 39.72146048727063
    - 40.36405416731873
    - 41.05604277966086
    - 41.80120034426159
    - 42.60328007157386
    - 43.46429243276452
    - 44.38321608232377
    - 45.358726003047195
    - 46.389497177729936
    - 47.47420458916622
    - 48.61152322015187
    - 49.800128053481785
    - 51.03869407195043
    - 52.32589625835362
    - 53.66040959548695
    - 55.04090906614374
    - 56.46606965312003
    - 57.93456633921073
    - 59.44507410721121
    - 60.9962679399157
    - 62.58682282012023
    - 64.21541373061928
    - 65.8807156542075
    - 67.58140357368052
    - 69.31615247183368
    - 71.08363733146143
    - 72.88253313535893
    - 74.7115148663213
    - 76.56925750714345
    - 78.45443604062098
    - 80.36572544954811
    - 82.30180071672021
    - 84.26133682493264
    - 86.24300875698009
    - 88.24549149565792
    - 90.26746002376058
    - 92.30758932408298
    - 94.36455437942118
    - 96.43703017256962
    - 98.5236916863239
    - 100.62321390347824
    - 102.73427180682756
    - 104.8555403791679
    - 106.98569460329372
    - 109.12340946199993
    - 111.26735993808188
    - 113.41622101433427
    - 115.56866767355291
    - 117.72337489853157
    - 119.87901767206631
    - 122.0342709769518
    - 124.18780979598318
    - 126.33830911195537
    - 128.48444390766372
    - 130.62488916590314
    - 132.75844366028377
    - 134.8848548686824
    - 137.0043090821407
    - 139.11699497034397
    - 141.2231012029763
    - 143.32281644972295
    - 145.41632938026805
    - 147.5038286642964
    - 149.58550297149236
    - 151.6615409715405
    - 153.7321313341256
    - 155.79746272893271
    - 157.85772382564528
    - 159.91310329394878
    - 161.96378980352733
    - 164.00997202406643
    - 166.05183862524927
    - 168.08957827676159
    - 170.1233796482877
    - 172.15343140951177
    - 174.1799222301188
    - 176.20304077979313
    - 178.22297572821935
    - 180.23991574508273
    - 182.25404950006646
    - 184.26556566285717
    - 186.2746529031374
    - 188.28149989059284
    - 190.2862952949081
    - 192.28922778576703
    - 194.29048603285491
    - 196.29025870585656
    - 198.28873447445585
    - 200.2861020083376
    - 202.28254997718682
    - 204.27826705068742
    - 206.27344189852397
    - 208.26826319038219
    - 210.26291959594596
    - 212.25759978489896
    - 214.25249242692757
    - 216.2477861917148
    - 218.24366974894656
    - 220.24033176830608
    - 222.2379609194793
    - 224.23674587214964
    - 226.23687529600284
    - 228.23853786072277
    - 230.24192223599357
    - 232.24719748344887
    - 234.25438684448227
    - 236.2634478478135
    - 238.27433770449898
    - 240.2870136255956
    - 242.3014328221593
    - 244.31755250524702
    - 246.33532988591514
    - 248.35472217522033
    - 250.375686584219
    - 252.3981803239676
    - 254.422160605523
    - 256.44758463994185
    - 258.47440963827967
    - 260.502592811594
    - 262.5320913709411
    - 264.56286252737755
    - 266.59486349195936
    - 268.6280514757443
    - 270.6623836897877
    - 272.6978173451464
    - 274.7343096528771
    - 276.7718178240366
    - 278.81029906968115
    - 280.84971060086764
    - 282.89000962865157
    - 284.9311533640903
    - 286.9730990182404
    - 289.01580380215796
    - 291.0592249268998
    - 293.103319603523
    - 295.14804504308313
    - 297.19335845663727
    - 299.2392170552421
    - 301.2855780499533
    - 303.3323986518285
    - 305.37963607192364
    - 307.42724752129516
    - 309.4751902109999
    - 311.5234213520939
    - 313.5718981556349
    - 315.62057783267846
    - 317.6694175942812
    - 319.71837465149906
    - 321.7674062153899
    - 323.8164694970094
    - 325.8655217074145
    - 327.9145200576618
    - 329.9634217588075
    - 332.01218402191193
    - 334.0607732034773
    - 336.1091914037961
    - 338.1574494543929
    - 340.20555818679213
    - 342.2535284325186
    - 344.30137102309595
    - 346.34909679004954
    - 348.3967165649035
    - 350.4442411791831
    - 352.49168146441207
    - 354.539048252115
    - 356.5863523738167
    - 358.63360466104155
    - 360.6808159453142
    - 362.72799705815896
    - 364.7751588311007
    - 366.8223120956634
    - 368.869467683372
    - 370.916636425751
    - 372.9638291543247
    - 375.0110567006177
    - 377.05832989615465
    - 379.1056595724599
    - 381.1530565610585
    - 383.20053169347443
    - 385.24809580123224
    - 387.29575971585655
    - 389.34353426887196
    - 391.39143029180286
    - 393.4394586161741
    - 395.48763007350976
    - 397.5359554953345
    - 399.58444571317295
    - 401.6331115585497
    - 403.68196386298905
    - 405.73101345801547
    - 407.78027117515376
    - 409.8297478459283
    - 411.8794543018639
    - 413.92940137448454
    - 415.979599895315
    - 418.03006069588014
    - 420.0807946077041
    - 422.13181246231125
    - 424.18312509122666
    - 426.2347433259745
    - 428.2866779980791
    - 430.33893993906554
    - 432.39153998045776
    - 434.4444889537806
    - 436.4977976905584
    - 438.55147702231625
    - 440.60553778057783
    - 442.6599907968682
    - 444.714846902712
    - 446.77011692963333
    - 448.8258117091568
    - 450.8819420728073
    - 452.9385188521089
    - 454.9955528785863
    - 457.05305498376424
    - 459.11103599916703
    - 461.16950675631836
    - 463.2284780867444
    - 465.2879608219688
    - 467.3479657935162
    - 469.40850383291115
    - 471.469585771678
    - 473.53122244134136
    - 475.5934246734257
    - 477.6562032994559
    - 479.719569150956
    - 481.78353305945063
    - 483.8481058564645
    - 485.91329837352214
    - 487.97912144214774
    - 490.04558589386625
    - 492.1127025602018
    - 494.18048227267946
    - 496.2489358628236
    - 498.31807416215804
    - 500.3879080022082
    - 502.4584482144977
    - 504.52970563055203
    - 506.6016910818954
    - 508.6744154000521
    - 510.7478894165465
    - 512.8221239629038
    - 514.8971298706479
    - 516.9729179713034
    - 519.0494990963953
    - 521.1268840774471
    - 523.2050837459848
    - 525.2841089335319
    - 527.3639704716132
    - 529.444679191753
    - 531.5262459254762
    - 533.608681504307
    - 535.6919966428538
    - 537.77619510389
    - 539.861269911005
    - 541.9472131681995
    - 544.0340169794749
    - 546.1216734488316
    - 548.2101746802717
    - 550.2995127777956
    - 552.3896798454044
    - 554.4806679870994
    - 556.5724693068818
    - 558.6650759087522
    - 560.7584798967121
    - 562.8526733747624
    - 564.9476484469043
    - 567.0433972171388
    - 569.1399117894667
    - 571.2371842678896
    - 573.3352067564086
    - 575.4339713590244
    - 577.5334701797381
    - 579.6336953225511
    - 581.7346388914643
    - 583.8362929904786
    - 585.9386497235953
    - 588.0417011948155
    - 590.1454395081404
    - 592.2498567675707
    - 594.3549450771079
    - 596.4606965407525
    - 598.5671032625061
    - 600.6741573463697
    - 602.7818508963445
    - 604.8901760164312
    - 606.9991248106311
    - 609.1086893829453
    - 611.2188618373748
    - 613.3296342779207
    - 615.4409988085843
    - 617.5529475333665
    - 619.6654725562681
    - 621.7785659812906
    - 623.892219912435
    - 626.0064264537025
    - 628.121177709094
    - 630.2364657826104
    - 632.3522827782529
    - 634.468620800023
    - 636.585471951921
    - 638.7028283379489
    - 640.8206820621069
    - 642.9390252283968
    - 645.0578499408192
    - 647.1771483033752
    - 649.2969124200667
    - 651.4171343948934
    - 653.5378063318575
    - 655.6589203349596
    - 657.7804685082008
    - 659.9024429555824
    - 662.024835781105
    - 664.1476390887703
    - 666.2708449825792
    - 668.3944455665327
    - 670.5184329446314
    - 672.6427992208775
    - 674.7675364992712
    - 676.8926368838136
    - 679.0180924785062
    - 681.1438953873497
    - 683.2700377143456
    - 685.3965115634946
    - 687.523309038798
    - 689.6504222442568
    - 691.7778432838719
    - 693.9055642616449
    - 696.0335772815763
    - 698.1618744476677
    - 700.2904478639198
    - 702.4192896343337
    - 704.5483918629108
    - 706.6777466536516
    - 708.8073461105579
    - 710.9371823376306
    - 713.0672474388704
    - 715.1975335182783
    - 717.328032679856
    - 719.4587370276043
    - 721.5896386655245
    - 723.7207296976171
    - 725.8520022278834
    - 727.9834483603247
    - 730.115060198942
    - 732.2468298477366
    - 734.3787494107092
    - 736.510810991861
    - 738.6430066951931
    - 740.7753286247066
    - 742.9077688844027
    - 745.0403195722016
    - 747.1729716595966
    - 749.305713680423
    - 751.438533850085
    - 753.5714203839868
    - 755.7043614975325
    - 757.8373454061261
    - 759.9703603251716
    - 762.1033944700736
    - 764.2364360562357
    - 766.3694732990623
    - 768.5024944139572
    - 770.6354876163251
    - 772.7684411215695
    - 774.9013431450946
    - 777.0341819023052
    - 779.1669456086047
    - 781.2996224793974
    - 783.4322007300873
    - 785.5646685760789
    - 787.6970142327759
    - 789.8292259155826
    - 791.9612918399034
    - 794.0932002211417
    - 796.2249392747024
    - 798.3564972159891
    - 800.487862260406
    - 802.6190226233572
    - 804.7499665202472
    - 806.8806821664797
    - 809.011157777459
    - 811.141381568589
    - 813.2713417552741
    - 815.4010265529182
    - 817.5304241769255
    - 819.6595228427001
    - 821.7883107656462
    - 823.916776161168
    - 826.0449072446693
    - 828.1726922315544
    - 830.3001193372273
    - 832.4271767770923
    - 834.5538527665536
    - 836.680135521015
    - 838.8060132558807
    - 840.931474186555
    - 843.0565065284417
    - 845.1810984969454
    - 847.3052383074696
    - 849.428914175419
    - 851.5521143161973
    - 853.6748269452089
    - 855.7970402778578
    - 857.9187425295481
    - 860.0399219156839
    - 862.1605666516692
    - 864.2806649529083
    - 866.4002050348056
    - 868.5191751127646
    - 870.6375634021898
    - 872.7553581184853
    - 874.872547477055
    - 876.9891196933031
    - 879.105062982634
    - 881.2203655604513
    - 883.3350156421595
    - 885.4490014431628
    - 887.5623111788651
    - 889.6749330646705
    - 891.786855315983
    - 893.898066148207
    - 896.0085537767467
    - 898.1183064170058
    - 900.2273122843887
    - 902.3355595942994
    - 904.4430365621421
    - 906.5497314033207
    - 908.6556323332399
    - 910.7607275673031
    - 912.8650053209147
    - 914.9684538094791
    - 917.0710612484
    - 919.1728158530819
    - 921.2737058389284
    - 923.373719421344
    - 925.4728448157326
    - 927.5710702374987
    - 929.6683839020462
    - 931.764774024779
    - 933.8602288211014
    - 935.9547365064175
    - 938.0482852961316
    - 940.1408634056473
    - 942.2324590503694
    - 944.3230604457015
    - 946.4126558070478
    - 948.5012333498127
    - 950.5887812894
    - 952.675287843153
    - 954.7607468280463
    - 956.8451699430777
    - 958.9285724491385
    - 961.0109696071194
    - 963.0923766779111
    - 965.172808922405
    - 967.2522816014921
    - 969.3308099760627
    - 971.4084093070084
    - 973.4850948552197
    - 975.5608818815876
    - 977.6357856470031
    - 979.7098214123572
    - 981.7830044385408
    - 983.8553499864449
    - 985.9268733169604
    - 987.997589690978
    - 990.0675143693887
    - 992.1366626130836
    - 994.2050496829538
    - 996.2726908398897
    - 998.3396013447829
    - 1000.4057964585237
    - 1002.4712914420033
    - 1004.5361015561127
    - 1006.6002420617427
    - 1008.6637282197846
    - 1010.7265752911287
    - 1012.7887985366665
    - 1014.8504132172886
    - 1016.9114345938862
    - 1018.9718779273499
    - 1021.0317584785707
    - 1023.0910915084398
    - 1025.149892277848
    - 1027.2081760476863
    - 1029.2659580788454
    - 1031.3232536322162
    - 1033.38007796869
    - 1035.4364463491574
    - 1037.4923740345098
    - 1039.5478762856376
    - 1041.602968363432
    - 1043.6576655287836
    - 1045.711983042584
    - 1047.7659361657236
    - 1049.8195401590933
    - 1051.8728102835844
    - 1053.9257618000875
    - 1055.9784099694937
    - 1058.0307700526942
    - 1060.0828573105791
    - 1062.1346870040402
    - 1064.186274393968
    - 1066.2376347412537
    - 1068.288783306788
    - 1070.339735351462
    - 1072.3905061361663
    - 1074.4411109217922
    - 1076.4915649692305
    - 1078.541883539372
    - 1080.5920818931081
    - 1082.642175291329
    - 1084.6921789949263
    - 1086.7421082647907
    - 1088.7919783618129
    - 1090.841804546884
    - 1092.8916020808954
    - 1094.9413862247372
    - 1096.9911722393008
    - 1099.0409753854772
    - 1101.0908109241573
    - 1103.1406941162318
    - 1105.1906402225916
    - 1107.2406645041278
    - 1109.2907822217317
    - 1111.3410086362935
    - 1113.3913590087045
    - 1115.441848599856
    - 1117.4924926706383
    - 1119.5433064819426
    - 1121.59430529466
    - 1123.645504369681
    - 1125.696918967897
    - 1127.7485643501986
    - 1129.800455777477
    - 1131.852608510623
    - 1133.9050378105276
    - 1135.9577589380815
    - 1138.010787154176
    - 1140.0641377197016
    - 1142.1178258955497
    - 1144.1718669426107
    - 1146.226276121776
    - 1148.2810686939363
    - 1150.3362599199827
    - 1152.3918650608061
    - 1154.4478993772973
    - 1156.504378130347
    - 1158.561315597955
    - 1160.6186906203102
    - 1162.676437545074
    - 1164.734487896627
    - 1166.7927731993504
    - 1168.8512249776256
    - 1170.909774755834
    - 1172.968354058356
    - 1175.0268944095733
    - 1177.085327333867
    - 1179.1435843556185
    - 1181.2015969992085
    - 1183.2592967890182
    - 1185.316615249429
    - 1187.3734839048223
    - 1189.4298342795787
    - 1191.4855978980795
    - 1193.5407062847062
    - 1195.5950909638395
    - 1197.6486834598609
    - 1199.7014152971517
    - 1201.7532180000926
    - 1203.804023093065
    - 1205.85376210045
    - 1207.9023665466289
    - 1209.9497679559827
    - 1211.995897852893
    - 1214.0406877617402
    - 1216.0840692069062
    - 1218.1259737127716
    - 1220.166332803718
    - 1222.205078004126
    - 1224.2421408383775
    - 1226.2774528308532
    - 1228.3109455059343
    - 1230.342550388002
    - 1232.3721990014376
    - 1234.399822870622
    - 1236.4253535199368
    - 1238.4487224737627
    - 1240.469861256481
    - 1242.4887013924729
    - 1244.5051744061195
    - 1246.5192118218022
    - 1248.5307451639019
    - 1250.5397059568
    - 1252.5460257248774
    - 1254.5496359925153
    - 1256.5504682840951
    - 1258.5484654191164
    - 1260.5437300467254
    - 1262.5364833215046
    - 1264.5269491957615
    - 1266.5153516218036
    - 1268.501914551938
    - 1270.486861938472
    - 1272.470417733713
    - 1274.4528058899684
    - 1276.4342503595456
    - 1278.4149750947515
    - 1280.3952040478941
    - 1282.3751611712803
    - 1284.3550704172173
    - 1286.3351557380129
    - 1288.315641085974
    - 1290.2967504134083
    - 1292.2787076726229
    - 1294.2617368159251
    - 1296.2460617956224
    - 1298.2319065640222
    - 1300.2194950734313
    - 1302.2090512761579
    - 1304.2007991245086
    - 1306.194962570791
    - 1308.1917655673124
    - 1310.1914320663802
    - 1312.194186020302
    - 1314.2002513813845
    - 1316.2098521019354
    - 1318.2232121342622
    - 1320.2405554306717
    - 1322.2621059434719
    - 1324.2880876249696
    - 1326.3187244274725
    - 1328.3542403032877
    - 1330.3948592047225
    - 1332.4408050840846
    - 1334.4923018936809
    - 1336.549573585819
    - 1338.612844112806
    - 1340.6823374269495
    - 1342.7582774805567
    - 1344.840888225935
    - 1346.9303936153917
    - 1349.027017601234
    - 1351.1309841357695
    - 1353.2425171713053
    - 1355.3618406601488
    - 1357.4891785546074
    - 1359.6246924519703
    - 1361.7678088234413
    - 1363.9174749529093
    - 1366.072629914176
    - 1368.2322127810435
    - 1370.3951626273129
    - 1372.5604185267862
    - 1374.7269195532651
    - 1376.8936047805514
    - 1379.059413282447
    - 1381.2232841327532
    - 1383.3841564052718
    - 1385.5409691738048
    - 1387.6926615121538
    - 1389.8381724941205
    - 1391.9764411935066
    - 1394.106406684114
    - 1396.227008039744
    - 1398.3371843341988
    - 1400.4358746412797
    - 1402.5220180347887
    - 1404.5945535885276
    - 1406.6524203762979
    - 1408.6945574719014
    - 1410.71990394914
    - 1412.727385638243
    - 1414.7156923280947
    - 1416.6833105441358
    - 1418.628720169784
    - 1420.550401088457
    - 1422.4468331835724
    - 1424.3164963385477
    - 1426.1578704368005
    - 1427.9694353617483
    - 1429.7496709968088
    - 1431.4970572253999
    - 1433.2100739309385
    - 1434.8872009968425
    - 1436.5269183065298
    - 1438.1277057434174
    - 1439.6880431909233
    - 1441.206410532465
    - 1442.68128765146
    - 1444.111154431326
    - 1445.4944907554805
    - 1446.8297765073412
    - 1448.1154915703255
    - 1449.3501158278511
    - 1450.5321291633356
    - 1451.6600114601965
    - 1452.7322505282607
    - 1453.7485018301375
    - 1454.710810435738
    - 1455.6215137725562
    - 1456.4829492680856
    - 1457.2974543498194
    - 1458.0673664452515
    - 1458.7950229818753
    - 1459.4827613871842
    - 1460.132919088672
    - 1460.7478335138321
    - 1461.3298420901579
    - 1461.8812822451432
    - 1462.4044914062815
    - 1462.9018070010661
    - 1463.3755664569908
    - 1463.828107201549
    - 1464.2617666622345
    - 1464.6788822665405
    - 1465.0817914419606
    - 1465.4728316159885
    - 1465.8543402161176
    - 1466.2286546698415
    - 1466.598485888938
    - 1466.9639324068737
    - 1467.324737645592
    - 1467.680759262541
    - 1468.0321278044114
    - 1468.37901264213
    - 1468.7215785399314
    - 1469.0599857002408
    - 1469.3943898044522
    - 1469.724942049604
    - 1470.0517891809486
    - 1470.3750735204198
    - 1470.6949329909942
    - 1471.0115011369498
    - 1471.3249071400203
    - 1471.635275831445
    - 1471.942727699914
    - 1472.2473788954119
    - 1472.5493412289527
    - 1472.8487221682158
    - 1473.145624829074
    - 1473.4401479630196
    - 1473.7323859404855
    - 1474.0224287300616
    - 1474.310361873609
    - 1474.5962664572683
    - 1476.3513398443818
  r:
    - 184.99319083995684
    - 184.99919738719043
    - 187.0970313768283
    - 189.14507244478372
    - 191.14861132050788
    - 193.1129387334521
    - 195.0433454130674
    - 196.94512208880508
    - 198.82355949011634
    - 200.68394834645238
    - 202.5315793872643
    - 204.3717433420034
    - 206.2097309401209
    - 208.05083291106786
    - 209.90033998429564
    - 211.76352882826077
    - 213.64392873497636
    - 215.5416503067234
    - 217.45640784495635
    - 219.38791565112984
    - 221.33588802669834
    - 223.3000392731164
    - 225.28008369183866
    - 227.27573558431962
    - 229.28670925201374
    - 231.31271899637574
    - 233.35347911886012
    - 235.40870015734296
    - 237.47772622163922
    - 239.55923320521782
    - 241.6518259621066
    - 243.7541093463327
    - 245.8646882119234
    - 247.98216741290608
    - 250.105151803308
    - 252.23224623715663
    - 254.36205556847924
    - 256.49318465130307
    - 258.6242383396556
    - 260.75382148756415
    - 262.88053894905596
    - 265.0029955781586
    - 267.1197962288989
    - 269.2295457553048
    - 271.3308490114033
    - 273.422310851222
    - 275.50253612878794
    - 277.57012969812865
    - 279.6236964132713
    - 281.6618411282434
    - 283.68316869707223
    - 285.6862839737851
    - 287.66978946352964
    - 289.63209095922343
    - 291.57125203655033
    - 293.4853019941584
    - 295.37227013069565
    - 297.23018574481074
    - 299.05707813515164
    - 300.85097660036644
    - 302.6099104391033
    - 304.33190895001064
    - 306.0150014317364
    - 307.6572171829289
    - 309.25658550223625
    - 310.81113568830665
    - 312.3188970397883
    - 313.7778988553294
    - 315.1861704335781
    - 316.5417410731827
    - 317.842640072791
    - 319.0868967310517
    - 320.27254034661274
    - 321.39760021812236
    - 322.4601056442287
    - 323.4580859235799
    - 324.3895703548242
    - 325.2525882366097
    - 326.0458771172504
    - 326.77157983209634
    - 327.4328613843825
    - 328.0328869735407
    - 328.57482179900325
    - 329.0618310602021
    - 329.4970799565692
    - 329.8837336875366
    - 330.22495745253667
    - 330.5239164510011
    - 330.78377588236197
    - 331.0077009460515
    - 331.1986320118839
    - 331.35773322624647
    - 331.48532546598904
    - 331.5817245083216
    - 331.6472461304543
    - 331.6822061095968
    - 331.6869202229594
    - 331.6617042477518
    - 331.60687396118414
    - 331.5227451404664
    - 331.4096335628085
    - 331.2678550054204
    - 331.0977252455121
    - 330.89959061146567
    - 330.6740315687997
    - 330.4217368807
    - 330.14339589739336
    - 329.8396979691067
    - 329.51133244606666
    - 329.1589886785003
    - 328.7833560166342
    - 328.3851238106953
    - 327.96498141091047
    - 327.52361816750647
    - 327.06172343071
    - 326.5799865507481
    - 326.07909687784746
    - 325.5597437622349
    - 325.02261655413724
    - 324.4684046037814
    - 323.89779726139403
    - 323.3114838772022
    - 322.7101538014324
    - 322.09449638431175
    - 321.4652009760669
    - 320.8229569269247
    - 320.1684535871121
    - 319.5023803068556
    - 318.8254264363823
    - 318.138281325919
    - 317.4416343256924
    - 316.73617478592945
    - 316.0225920568569
    - 315.3015754887016
    - 314.57381443169027
    - 313.8399982360497
    - 313.10081625200706
    - 312.3569578297887
    - 311.60911231962183
    - 310.8579690717332
    - 310.10421743634936
    - 309.34854676369724
    - 308.5916464040038
    - 307.8342057074958
    - 307.0769140244
    - 306.3204607049433
    - 305.5655350993525
    - 304.81282655785435
    - 304.0630244306758
    - 303.3168180680436
    - 302.5748968201844
    - 301.83795003732536
    - 301.1065999221667
    - 300.38096931783855
    - 299.66095603524536
    - 298.94645679745867
    - 298.23736832755
    - 297.5335873485907
    - 296.8350105836524
    - 296.14153475580645
    - 295.45305658812435
    - 294.7694728036778
    - 294.0906801255379
    - 293.4165752767764
    - 292.7470549804648
    - 292.0820159596744
    - 291.42135493747685
    - 290.76496863694354
    - 290.1127537811459
    - 289.4646070931555
    - 288.8204252960437
    - 288.1801051128822
    - 287.54354326674223
    - 286.9106364806956
    - 286.28128147781337
    - 285.65537498116726
    - 285.0328137138288
    - 284.41349439886926
    - 283.7973137593604
    - 283.1841685183734
    - 282.57395539898
    - 281.9665711242516
    - 281.36191241725953
    - 280.7598760010754
    - 280.16035859877076
    - 279.5632569334169
    - 278.96846772808544
    - 278.3758877058479
    - 277.78541358977566
    - 277.1969421029401
    - 276.610369968413
    - 276.0255939092656
    - 275.4425106485694
    - 274.86101690939597
    - 274.28100941481677
    - 273.70238488790324
    - 273.1250400517269
    - 272.54887162935916
    - 271.9737763438715
    - 271.3996509183355
    - 270.8263920758226
    - 270.25389653941215
    - 269.68207855847925
    - 269.1109208816945
    - 268.5404229902353
    - 267.9705843652788
    - 267.40140448800236
    - 266.8328828395834
    - 266.2650189011991
    - 265.69781215402674
    - 265.1312620792435
    - 264.565368158027
    - 264.00012987155435
    - 263.43554670100275
    - 262.8716181275497
    - 262.3083436323724
    - 261.7457226966481
    - 261.18375480155424
    - 260.62243942826797
    - 260.0617760579667
    - 259.5017641718277
    - 258.9424032510283
    - 258.3836927767457
    - 257.8256322301572
    - 257.2682210924403
    - 256.711458844772
    - 256.1553449683298
    - 255.5998789442909
    - 255.04506025383282
    - 254.49088837813252
    - 253.93736279836756
    - 253.38448299571508
    - 252.83224845135248
    - 252.28065864645703
    - 251.729713062206
    - 251.17941117977674
    - 250.62975248034658
    - 250.08073644509273
    - 249.5323625551925
    - 248.9846302918232
    - 248.43753913616217
    - 247.89108856938665
    - 247.345278072674
    - 246.80010712720147
    - 246.25557521414635
    - 245.71168181468596
    - 245.16842640999766
    - 244.6258084812587
    - 244.08382750964628
    - 243.54248297633788
    - 243.00177436251076
    - 242.4617011493421
    - 241.92226281800933
    - 241.38345884968956
    - 240.8452887255603
    - 240.30775192679877
    - 239.77084793458226
    - 239.2345762300881
    - 238.69893629449348
    - 238.16392760897585
    - 237.6295496547125
    - 237.09580191288055
    - 236.56268386465752
    - 236.03019499122055
    - 235.49833477374713
    - 234.96710269341426
    - 234.43649823139955
    - 233.90652086888008
    - 233.3771700870332
    - 232.8484453670363
    - 232.32034619006657
    - 231.79287203730138
    - 231.26602238991794
    - 230.73979672909368
    - 230.21419453600586
    - 229.68921529183172
    - 229.16485847774857
    - 228.64112357493372
    - 228.11801006456457
    - 227.59551742781824
    - 227.0736451458722
    - 226.55239269990358
    - 226.03175957108982
    - 225.5117452406081
    - 224.99234918963586
    - 224.47357089935028
    - 223.95540985092865
    - 223.4378655255484
    - 222.92093740438673
    - 222.40462496862096
    - 221.88892769942845
    - 221.37384507798637
    - 220.85937658547212
    - 220.34552170306296
    - 219.83227991193618
    - 219.31965069326907
    - 218.80763352823897
    - 218.2962278980232
    - 217.78543328379902
    - 217.2752491667437
    - 216.76567892456393
    - 216.2569576219531
    - 215.7496782333867
    - 215.24446438086616
    - 214.74193968639236
    - 214.24272777196663
    - 213.74745225959012
    - 213.25673677126375
    - 212.77120492898885
    - 212.29148035476652
    - 211.8181866705979
    - 211.35194749848418
    - 210.8933864604265
    - 210.4431271784259
    - 210.00179327448367
    - 209.57000837060087
    - 209.14839608877878
    - 208.73758005101828
    - 208.33818387932075
    - 207.9508311956872
    - 207.57614562211882
    - 207.21475078061687
    - 206.86727029318226
    - 206.53432778181633
    - 206.2165468685201
    - 205.91452506341145
    - 205.62830046290685
    - 205.35737370351916
    - 205.10122370284296
    - 204.8593293784732
    - 204.6311696480044
    - 204.4162234290315
    - 204.21396963914916
    - 204.02388719595226
    - 203.84545501703545
    - 203.67815201999352
    - 203.52145712242122
    - 203.37484924191338
    - 203.2378072960646
    - 203.10981020246984
    - 202.99033687872372
    - 202.87886624242097
    - 202.77487721115654
    - 202.677848702525
    - 202.5872596341212
    - 202.50258892353983
    - 202.42331548837578
    - 202.34891824622363
    - 202.27887611467827
    - 202.21266801133444
    - 202.14982029299168
    - 202.09020140676
    - 202.0338298559184
    - 201.9807247842447
    - 201.930905335517
    - 201.88439065351315
    - 201.84119988201124
    - 201.80135216478922
    - 201.76486664562512
    - 201.7317624682968
    - 201.70205877658253
    - 201.67577471425994
    - 201.65292942510732
    - 201.63354205290247
    - 201.61763174142354
    - 201.60521763444837
    - 201.596318875755
    - 201.5909546091214
    - 201.5891439783256
    - 201.59090612714553
    - 201.59626019935934
    - 201.60522533874476
    - 201.61782068908
    - 201.63406539414294
    - 201.65397845001095
    - 201.6774887511676
    - 201.70428219469625
    - 201.73400412372737
    - 201.76629988139163
    - 201.8008148108197
    - 201.83719425514215
    - 201.87508355748957
    - 201.91412806099268
    - 201.95397310878198
    - 201.99426404398818
    - 202.0346462097417
    - 202.0747649491734
    - 202.11426560541383
    - 202.15279352159362
    - 202.1899940408433
    - 202.2255125062935
    - 202.2589942610749
    - 202.2900846483181
    - 202.31842901115374
    - 202.34367269271232
    - 202.36546103612466
    - 202.3834393845212
    - 202.3972530810326
    - 202.4065474687895
    - 202.4109688556103
    - 202.41034225383797
    - 202.40487940346623
    - 202.39484256271817
    - 202.3804939898167
    - 202.3620959429851
    - 202.33991068044622
    - 202.3142004604232
    - 202.2852275411391
    - 202.2532541808169
    - 202.21854263767972
    - 202.18135516995056
    - 202.1419540358525
    - 202.10060149360868
    - 202.05755980144193
    - 202.01309121757544
    - 201.96745800023228
    - 201.9209224076355
    - 201.87374669800806
    - 201.82619312957306
    - 201.77852396055354
    - 201.73100144917262
    - 201.68388785365332
    - 201.63744543221858
    - 201.59193644309158
    - 201.54762314449533
    - 201.50476779465288
    - 201.46363265178724